<?xml version="1.0" encoding="UTF-8"?>

<!-- generated on 2024-01-20 19:27:21 by Eclipse SUMO sumo Version 1.19.0
<configuration xmlns:xsi="http://www.w3.org/2001/XMLSchema-instance" xsi:noNamespaceSchemaLocation="http://sumo.dlr.de/xsd/sumoConfiguration.xsd">

    <input>
        <net-file value="C:\study\ProjectA\verif\sim\try\try.net.xml"/>
        <route-files value="C:\study\ProjectA\verif\sim\try\try.rou.xml"/>
    </input>

    <output>
        <tripinfo-output value="C:\study\ProjectA\verif\sim\try\tripinfo.xml"/>
        <collision-output value="C:\study\ProjectA\verif\sim\try\collision.xml"/>
        <edgedata-output value="C:\study\ProjectA\verif\sim\try\edgedata.xml"/>
        <statistic-output value="C:\study\ProjectA\verif\sim\try\stats.xml"/>
    </output>

    <time>
        <begin value="0"/>
        <end value="30000.00"/>
        <step-length value="1"/>
    </time>

    <report>
        <duration-log.statistics value="true"/>
    </report>

    <traci_server>
        <remote-port value="61124"/>
    </traci_server>

</configuration>
-->

<meandata xmlns:xsi="http://www.w3.org/2001/XMLSchema-instance" xsi:noNamespaceSchemaLocation="http://sumo.dlr.de/xsd/meandata_file.xsd">
    <interval begin="0.00" end="1000.00" id="DEFAULT_EDGEDATA">
        <edge id="578571025#2" sampledSeconds="316.98" traveltime="11.41" overlapTraveltime="11.80" density="2.64" laneDensity="1.32" occupancy="0.65" waitingTime="0.00" timeLoss="115.60" speed="10.60" speedRelative="0.64" departed="28" arrived="0" entered="0" left="28" laneChangedFrom="5" laneChangedTo="5"/>
        <edge id="578571025#3" sampledSeconds="519.91" traveltime="17.77" overlapTraveltime="19.42" density="107.64" laneDensity="53.82" occupancy="19.82" waitingTime="435.00" timeLoss="504.13" speed="0.51" speedRelative="0.03" departed="0" arrived="0" entered="28" left="26" laneChangedFrom="1" laneChangedTo="1"/>
        <edge id="578571025#5" sampledSeconds="20.19" traveltime="0.32" overlapTraveltime="0.78" density="6.17" laneDensity="3.09" occupancy="0.61" waitingTime="0.00" timeLoss="7.30" speed="10.65" speedRelative="0.64" departed="0" arrived="0" entered="26" left="26" laneChangedFrom="0" laneChangedTo="0"/>
        <edge id="578571025#6" sampledSeconds="2612.95" traveltime="100.98" overlapTraveltime="101.29" density="1.62" laneDensity="0.81" occupancy="0.40" waitingTime="0.00" timeLoss="109.99" speed="15.98" speedRelative="0.96" departed="0" arrived="25" entered="26" left="0" laneChangedFrom="5" laneChangedTo="5"/>
        <edge id="578571036#0" sampledSeconds="1307.76" traveltime="43.59" overlapTraveltime="47.83" density="2.07" laneDensity="1.04" occupancy="0.49" waitingTime="93.00" timeLoss="277.29" speed="13.29" speedRelative="0.80" departed="28" arrived="0" entered="0" left="27" laneChangedFrom="28" laneChangedTo="28"/>
        <edge id="578571036#3" sampledSeconds="420.29" traveltime="14.57" overlapTraveltime="15.86" density="61.36" laneDensity="30.68" occupancy="14.36" waitingTime="328.00" timeLoss="395.69" speed="0.75" speedRelative="0.04" departed="0" arrived="0" entered="27" left="26" laneChangedFrom="0" laneChangedTo="0"/>
        <edge id="578571036#4" sampledSeconds="160.91" traveltime="5.48" overlapTraveltime="5.81" density="2.15" laneDensity="1.08" occupancy="0.50" waitingTime="0.00" timeLoss="23.86" speed="13.72" speedRelative="0.82" departed="0" arrived="28" entered="28" left="0" laneChangedFrom="0" laneChangedTo="0"/>
        <edge id="624234289#1" sampledSeconds="216.05" traveltime="7.86" overlapTraveltime="8.42" density="3.85" laneDensity="3.85" occupancy="1.85" waitingTime="6.00" timeLoss="99.20" speed="7.26" speedRelative="0.52" departed="28" arrived="0" entered="0" left="28" laneChangedFrom="0" laneChangedTo="0"/>
        <edge id="624234289#2" sampledSeconds="424.13" traveltime="13.98" overlapTraveltime="15.15" density="79.13" laneDensity="79.13" occupancy="32.54" waitingTime="340.00" timeLoss="397.82" speed="0.68" speedRelative="0.05" departed="0" arrived="0" entered="28" left="28" laneChangedFrom="0" laneChangedTo="0"/>
        <edge id="691442976#1" sampledSeconds="28.90" traveltime="0.67" overlapTraveltime="1.11" density="4.34" laneDensity="4.34" occupancy="1.24" waitingTime="0.00" timeLoss="7.27" speed="10.49" speedRelative="0.76" departed="0" arrived="0" entered="26" left="26" laneChangedFrom="0" laneChangedTo="0"/>
        <edge id="691442976#2" sampledSeconds="64.66" traveltime="2.11" overlapTraveltime="2.49" density="2.35" laneDensity="2.35" occupancy="0.99" waitingTime="0.00" timeLoss="4.22" speed="13.10" speedRelative="0.94" departed="0" arrived="0" entered="26" left="26" laneChangedFrom="0" laneChangedTo="0"/>
        <edge id="691442976#3" sampledSeconds="43.90" traveltime="1.39" overlapTraveltime="1.75" density="2.37" laneDensity="2.37" occupancy="0.95" waitingTime="0.00" timeLoss="1.94" speed="13.42" speedRelative="0.97" departed="0" arrived="26" entered="26" left="0" laneChangedFrom="0" laneChangedTo="0"/>
    </interval>
</meandata>
