<?xml version="1.0" encoding="UTF-8"?>

<!-- generated on 2024-01-20 19:27:21 by Eclipse SUMO sumo Version 1.19.0
<configuration xmlns:xsi="http://www.w3.org/2001/XMLSchema-instance" xsi:noNamespaceSchemaLocation="http://sumo.dlr.de/xsd/sumoConfiguration.xsd">

    <input>
        <net-file value="C:\study\ProjectA\verif\sim\try\try.net.xml"/>
        <route-files value="C:\study\ProjectA\verif\sim\try\try.rou.xml"/>
    </input>

    <output>
        <tripinfo-output value="C:\study\ProjectA\verif\sim\try\tripinfo.xml"/>
        <collision-output value="C:\study\ProjectA\verif\sim\try\collision.xml"/>
        <edgedata-output value="C:\study\ProjectA\verif\sim\try\edgedata.xml"/>
        <statistic-output value="C:\study\ProjectA\verif\sim\try\stats.xml"/>
    </output>

    <time>
        <begin value="0"/>
        <end value="30000.00"/>
        <step-length value="1"/>
    </time>

    <report>
        <duration-log.statistics value="true"/>
    </report>

    <traci_server>
        <remote-port value="61124"/>
    </traci_server>

</configuration>
-->

<tripinfos xmlns:xsi="http://www.w3.org/2001/XMLSchema-instance" xsi:noNamespaceSchemaLocation="http://sumo.dlr.de/xsd/tripinfo_file.xsd">
    <tripinfo id="f_2.0" depart="3.00" departLane="624234289#1_0" departPos="5.10" departSpeed="0.00" departDelay="0.00" arrival="35.00" arrivalLane="578571036#4_1" arrivalPos="74.69" arrivalSpeed="16.66" duration="32.00" routeLength="165.34" waitingTime="11.00" waitingCount="1" stopTime="0.00" timeLoss="19.88" rerouteNo="1" devices="tripinfo_f_2.0 routing_f_2.0" vType="DEFAULT_VEHTYPE" speedFactor="1.01" vaporized=""/>
    <tripinfo id="f_2.1" depart="39.00" departLane="624234289#1_0" departPos="5.10" departSpeed="0.00" departDelay="0.00" arrival="57.00" arrivalLane="578571036#4_1" arrivalPos="74.69" arrivalSpeed="13.03" duration="18.00" routeLength="165.34" waitingTime="0.00" waitingCount="0" stopTime="0.00" timeLoss="3.74" rerouteNo="1" devices="tripinfo_f_2.1 routing_f_2.1" vType="DEFAULT_VEHTYPE" speedFactor="0.83" vaporized=""/>
    <tripinfo id="f_1.0" depart="2.00" departLane="578571036#0_0" departPos="5.10" departSpeed="0.00" departDelay="0.00" arrival="65.00" arrivalLane="691442976#3_0" arrivalPos="18.55" arrivalSpeed="12.37" duration="63.00" routeLength="733.19" waitingTime="3.00" waitingCount="1" stopTime="0.00" timeLoss="13.77" rerouteNo="1" devices="tripinfo_f_1.0 routing_f_1.0" vType="DEFAULT_VEHTYPE" speedFactor="0.94" vaporized=""/>
    <tripinfo id="f_2.2" depart="75.00" departLane="624234289#1_0" departPos="5.10" departSpeed="0.00" departDelay="0.00" arrival="104.00" arrivalLane="578571036#4_1" arrivalPos="74.69" arrivalSpeed="14.94" duration="29.00" routeLength="165.34" waitingTime="7.00" waitingCount="1" stopTime="0.00" timeLoss="16.60" rerouteNo="1" devices="tripinfo_f_2.2 routing_f_2.2" vType="DEFAULT_VEHTYPE" speedFactor="0.94" vaporized=""/>
    <tripinfo id="f_1.1" depart="38.00" departLane="578571036#0_0" departPos="5.10" departSpeed="0.00" departDelay="0.00" arrival="124.00" arrivalLane="691442976#3_0" arrivalPos="18.55" arrivalSpeed="14.14" duration="86.00" routeLength="733.19" waitingTime="31.00" waitingCount="1" stopTime="0.00" timeLoss="41.25" rerouteNo="1" devices="tripinfo_f_1.1 routing_f_1.1" vType="DEFAULT_VEHTYPE" speedFactor="1.03" vaporized=""/>
    <tripinfo id="f_1.2" depart="74.00" departLane="578571036#0_0" departPos="5.10" departSpeed="0.00" departDelay="0.00" arrival="134.00" arrivalLane="691442976#3_0" arrivalPos="18.55" arrivalSpeed="11.49" duration="60.00" routeLength="733.19" waitingTime="0.00" waitingCount="0" stopTime="0.00" timeLoss="8.43" rerouteNo="1" devices="tripinfo_f_1.2 routing_f_1.2" vType="DEFAULT_VEHTYPE" speedFactor="0.89" vaporized=""/>
    <tripinfo id="f_2.3" depart="111.00" departLane="624234289#1_0" departPos="5.10" departSpeed="0.00" departDelay="0.00" arrival="150.00" arrivalLane="578571036#4_1" arrivalPos="74.69" arrivalSpeed="16.77" duration="39.00" routeLength="165.34" waitingTime="19.00" waitingCount="1" stopTime="0.00" timeLoss="27.82" rerouteNo="1" devices="tripinfo_f_2.3 routing_f_2.3" vType="DEFAULT_VEHTYPE" speedFactor="1.03" vaporized=""/>
    <tripinfo id="f_1.3" depart="110.00" departLane="578571036#0_0" departPos="5.10" departSpeed="0.00" departDelay="0.00" arrival="164.00" arrivalLane="691442976#3_0" arrivalPos="18.55" arrivalSpeed="14.36" duration="54.00" routeLength="733.19" waitingTime="2.00" waitingCount="1" stopTime="0.00" timeLoss="11.83" rerouteNo="1" devices="tripinfo_f_1.3 routing_f_1.3" vType="DEFAULT_VEHTYPE" speedFactor="1.09" vaporized=""/>
    <tripinfo id="f_2.4" depart="147.00" departLane="624234289#1_0" departPos="5.10" departSpeed="0.00" departDelay="0.00" arrival="181.00" arrivalLane="578571036#4_1" arrivalPos="74.69" arrivalSpeed="15.39" duration="34.00" routeLength="165.34" waitingTime="14.00" waitingCount="1" stopTime="0.00" timeLoss="21.63" rerouteNo="1" devices="tripinfo_f_2.4 routing_f_2.4" vType="DEFAULT_VEHTYPE" speedFactor="0.99" vaporized=""/>
    <tripinfo id="f_0.1" depart="36.00" departLane="578571025#2_0" departPos="5.10" departSpeed="0.00" departDelay="0.00" arrival="183.00" arrivalLane="578571025#6_0" arrivalPos="1613.40" arrivalSpeed="18.04" duration="147.00" routeLength="1786.14" waitingTime="33.00" waitingCount="1" stopTime="0.00" timeLoss="48.01" rerouteNo="1" devices="tripinfo_f_0.1 routing_f_0.1" vType="DEFAULT_VEHTYPE" speedFactor="1.08" vaporized=""/>
    <tripinfo id="f_0.0" depart="0.00" departLane="578571025#2_0" departPos="5.10" departSpeed="0.00" departDelay="0.00" arrival="186.00" arrivalLane="578571025#6_0" arrivalPos="1613.40" arrivalSpeed="16.95" duration="186.00" routeLength="1786.14" waitingTime="71.00" waitingCount="1" stopTime="0.00" timeLoss="84.29" rerouteNo="1" devices="tripinfo_f_0.0 routing_f_0.0" vType="DEFAULT_VEHTYPE" speedFactor="1.06" vaporized=""/>
    <tripinfo id="f_0.2" depart="72.00" departLane="578571025#2_0" departPos="5.10" departSpeed="0.00" departDelay="0.00" arrival="188.00" arrivalLane="578571025#6_0" arrivalPos="1613.40" arrivalSpeed="17.17" duration="116.00" routeLength="1786.14" waitingTime="0.00" waitingCount="0" stopTime="0.00" timeLoss="13.54" rerouteNo="1" devices="tripinfo_f_0.2 routing_f_0.2" vType="DEFAULT_VEHTYPE" speedFactor="1.05" vaporized=""/>
    <tripinfo id="f_1.4" depart="146.00" departLane="578571036#0_0" departPos="5.10" departSpeed="0.00" departDelay="0.00" arrival="196.00" arrivalLane="691442976#3_0" arrivalPos="18.55" arrivalSpeed="15.50" duration="50.00" routeLength="733.19" waitingTime="0.00" waitingCount="0" stopTime="0.00" timeLoss="8.52" rerouteNo="1" devices="tripinfo_f_1.4 routing_f_1.4" vType="DEFAULT_VEHTYPE" speedFactor="1.12" vaporized=""/>
    <tripinfo id="f_2.5" depart="183.00" departLane="624234289#1_0" departPos="5.10" departSpeed="0.00" departDelay="0.00" arrival="205.00" arrivalLane="578571036#4_1" arrivalPos="74.69" arrivalSpeed="15.20" duration="22.00" routeLength="165.34" waitingTime="1.00" waitingCount="1" stopTime="0.00" timeLoss="9.16" rerouteNo="1" devices="tripinfo_f_2.5 routing_f_2.5" vType="DEFAULT_VEHTYPE" speedFactor="0.94" vaporized=""/>
    <tripinfo id="f_2.6" depart="219.00" departLane="624234289#1_0" departPos="5.10" departSpeed="0.00" departDelay="0.00" arrival="244.00" arrivalLane="578571036#4_1" arrivalPos="74.69" arrivalSpeed="16.46" duration="25.00" routeLength="165.34" waitingTime="5.00" waitingCount="1" stopTime="0.00" timeLoss="13.47" rerouteNo="1" devices="tripinfo_f_2.6 routing_f_2.6" vType="DEFAULT_VEHTYPE" speedFactor="1.02" vaporized=""/>
    <tripinfo id="f_0.3" depart="108.00" departLane="578571025#2_0" departPos="5.10" departSpeed="0.00" departDelay="0.00" arrival="255.00" arrivalLane="578571025#6_0" arrivalPos="1613.40" arrivalSpeed="13.58" duration="147.00" routeLength="1786.14" waitingTime="7.00" waitingCount="1" stopTime="0.00" timeLoss="21.48" rerouteNo="1" devices="tripinfo_f_0.3 routing_f_0.3" vType="DEFAULT_VEHTYPE" speedFactor="0.86" vaporized=""/>
    <tripinfo id="f_1.5" depart="182.00" departLane="578571036#0_0" departPos="5.10" departSpeed="0.00" departDelay="0.00" arrival="256.00" arrivalLane="691442976#3_0" arrivalPos="18.55" arrivalSpeed="11.72" duration="74.00" routeLength="733.19" waitingTime="11.00" waitingCount="1" stopTime="0.00" timeLoss="21.54" rerouteNo="1" devices="tripinfo_f_1.5 routing_f_1.5" vType="DEFAULT_VEHTYPE" speedFactor="0.88" vaporized=""/>
    <tripinfo id="f_2.7" depart="256.00" departLane="624234289#1_0" departPos="5.10" departSpeed="0.00" departDelay="1.00" arrival="295.00" arrivalLane="578571036#4_1" arrivalPos="74.69" arrivalSpeed="14.51" duration="39.00" routeLength="165.34" waitingTime="19.00" waitingCount="1" stopTime="0.00" timeLoss="25.86" rerouteNo="1" devices="tripinfo_f_2.7 routing_f_2.7" vType="DEFAULT_VEHTYPE" speedFactor="0.89" vaporized=""/>
    <tripinfo id="f_2.8" depart="291.00" departLane="624234289#1_0" departPos="5.10" departSpeed="0.00" departDelay="0.00" arrival="308.00" arrivalLane="578571036#4_1" arrivalPos="74.69" arrivalSpeed="14.14" duration="17.00" routeLength="165.34" waitingTime="0.00" waitingCount="0" stopTime="0.00" timeLoss="3.95" rerouteNo="1" devices="tripinfo_f_2.8 routing_f_2.8" vType="DEFAULT_VEHTYPE" speedFactor="0.92" vaporized=""/>
    <tripinfo id="f_1.6" depart="218.00" departLane="578571036#0_0" departPos="5.10" departSpeed="0.00" departDelay="0.00" arrival="320.00" arrivalLane="691442976#3_0" arrivalPos="18.55" arrivalSpeed="15.28" duration="102.00" routeLength="733.19" waitingTime="50.00" waitingCount="1" stopTime="0.00" timeLoss="62.35" rerouteNo="1" devices="tripinfo_f_1.6 routing_f_1.6" vType="DEFAULT_VEHTYPE" speedFactor="1.16" vaporized=""/>
    <tripinfo id="f_0.4" depart="144.00" departLane="578571025#2_0" departPos="5.10" departSpeed="0.00" departDelay="0.00" arrival="323.00" arrivalLane="578571025#6_0" arrivalPos="1613.40" arrivalSpeed="16.65" duration="179.00" routeLength="1786.14" waitingTime="61.00" waitingCount="1" stopTime="0.00" timeLoss="76.07" rerouteNo="1" devices="tripinfo_f_0.4 routing_f_0.4" vType="DEFAULT_VEHTYPE" speedFactor="1.05" vaporized=""/>
    <tripinfo id="f_1.7" depart="254.00" departLane="578571036#0_0" departPos="5.10" departSpeed="0.00" departDelay="0.00" arrival="324.00" arrivalLane="691442976#3_0" arrivalPos="18.55" arrivalSpeed="13.11" duration="70.00" routeLength="733.19" waitingTime="10.00" waitingCount="1" stopTime="0.00" timeLoss="22.40" rerouteNo="1" devices="tripinfo_f_1.7 routing_f_1.7" vType="DEFAULT_VEHTYPE" speedFactor="0.97" vaporized=""/>
    <tripinfo id="f_0.5" depart="180.00" departLane="578571025#2_0" departPos="5.10" departSpeed="0.00" departDelay="0.00" arrival="336.00" arrivalLane="578571025#6_0" arrivalPos="1613.40" arrivalSpeed="15.34" duration="156.00" routeLength="1786.14" waitingTime="25.00" waitingCount="1" stopTime="0.00" timeLoss="39.73" rerouteNo="1" devices="tripinfo_f_0.5 routing_f_0.5" vType="DEFAULT_VEHTYPE" speedFactor="0.93" vaporized=""/>
    <tripinfo id="f_0.6" depart="216.00" departLane="578571025#2_0" departPos="5.10" departSpeed="0.00" departDelay="0.00" arrival="340.00" arrivalLane="578571025#6_0" arrivalPos="1613.40" arrivalSpeed="14.96" duration="124.00" routeLength="1786.14" waitingTime="0.00" waitingCount="0" stopTime="0.00" timeLoss="8.79" rerouteNo="1" devices="tripinfo_f_0.6 routing_f_0.6" vType="DEFAULT_VEHTYPE" speedFactor="0.94" vaporized=""/>
    <tripinfo id="f_1.8" depart="290.00" departLane="578571036#0_0" departPos="5.10" departSpeed="0.00" departDelay="0.00" arrival="350.00" arrivalLane="691442976#3_0" arrivalPos="18.55" arrivalSpeed="11.54" duration="60.00" routeLength="733.19" waitingTime="0.00" waitingCount="0" stopTime="0.00" timeLoss="7.32" rerouteNo="1" devices="tripinfo_f_1.8 routing_f_1.8" vType="DEFAULT_VEHTYPE" speedFactor="0.87" vaporized=""/>
    <tripinfo id="f_0.7" depart="252.00" departLane="578571025#2_0" departPos="5.10" departSpeed="0.00" departDelay="0.00" arrival="366.00" arrivalLane="578571025#6_0" arrivalPos="1613.40" arrivalSpeed="16.70" duration="114.00" routeLength="1786.14" waitingTime="0.00" waitingCount="0" stopTime="0.00" timeLoss="7.74" rerouteNo="1" devices="tripinfo_f_0.7 routing_f_0.7" vType="DEFAULT_VEHTYPE" speedFactor="1.01" vaporized=""/>
    <tripinfo id="f_1.9" depart="326.00" departLane="578571036#0_0" departPos="5.10" departSpeed="0.00" departDelay="0.00" arrival="374.00" arrivalLane="691442976#3_0" arrivalPos="18.55" arrivalSpeed="15.62" duration="48.00" routeLength="733.19" waitingTime="0.00" waitingCount="0" stopTime="0.00" timeLoss="7.54" rerouteNo="1" devices="tripinfo_f_1.9 routing_f_1.9" vType="DEFAULT_VEHTYPE" speedFactor="1.13" vaporized=""/>
    <tripinfo id="f_2.9" depart="327.00" departLane="624234289#1_0" departPos="5.10" departSpeed="0.00" departDelay="0.00" arrival="402.00" arrivalLane="578571036#4_1" arrivalPos="74.69" arrivalSpeed="14.47" duration="75.00" routeLength="165.34" waitingTime="54.00" waitingCount="1" stopTime="0.00" timeLoss="61.76" rerouteNo="1" devices="tripinfo_f_2.9 routing_f_2.9" vType="DEFAULT_VEHTYPE" speedFactor="0.93" vaporized=""/>
    <tripinfo id="f_2.10" depart="363.00" departLane="624234289#1_0" departPos="5.10" departSpeed="0.00" departDelay="0.00" arrival="403.00" arrivalLane="578571036#4_1" arrivalPos="74.69" arrivalSpeed="15.74" duration="40.00" routeLength="165.34" waitingTime="17.00" waitingCount="1" stopTime="0.00" timeLoss="28.25" rerouteNo="1" devices="tripinfo_f_2.10 routing_f_2.10" vType="DEFAULT_VEHTYPE" speedFactor="1.01" vaporized=""/>
    <tripinfo id="f_1.10" depart="362.00" departLane="578571036#0_0" departPos="5.10" departSpeed="0.00" departDelay="0.00" arrival="424.00" arrivalLane="691442976#3_0" arrivalPos="18.55" arrivalSpeed="15.08" duration="62.00" routeLength="733.19" waitingTime="11.00" waitingCount="1" stopTime="0.00" timeLoss="22.35" rerouteNo="1" devices="tripinfo_f_1.10 routing_f_1.10" vType="DEFAULT_VEHTYPE" speedFactor="1.15" vaporized=""/>
    <tripinfo id="f_2.11" depart="399.00" departLane="624234289#1_0" departPos="5.10" departSpeed="0.00" departDelay="0.00" arrival="441.00" arrivalLane="578571036#4_1" arrivalPos="74.69" arrivalSpeed="15.73" duration="42.00" routeLength="165.34" waitingTime="21.00" waitingCount="1" stopTime="0.00" timeLoss="30.09" rerouteNo="1" devices="tripinfo_f_2.11 routing_f_2.11" vType="DEFAULT_VEHTYPE" speedFactor="1.02" vaporized=""/>
    <tripinfo id="f_1.11" depart="398.00" departLane="578571036#0_0" departPos="5.10" departSpeed="0.00" departDelay="0.00" arrival="452.00" arrivalLane="691442976#3_0" arrivalPos="18.55" arrivalSpeed="12.53" duration="54.00" routeLength="733.19" waitingTime="0.00" waitingCount="0" stopTime="0.00" timeLoss="7.05" rerouteNo="1" devices="tripinfo_f_1.11 routing_f_1.11" vType="DEFAULT_VEHTYPE" speedFactor="0.99" vaporized=""/>
    <tripinfo id="f_0.9" depart="324.00" departLane="578571025#2_0" departPos="5.10" departSpeed="0.00" departDelay="0.00" arrival="463.00" arrivalLane="578571025#6_0" arrivalPos="1613.40" arrivalSpeed="15.63" duration="139.00" routeLength="1786.14" waitingTime="11.00" waitingCount="1" stopTime="0.00" timeLoss="25.96" rerouteNo="1" devices="tripinfo_f_0.9 routing_f_0.9" vType="DEFAULT_VEHTYPE" speedFactor="0.95" vaporized=""/>
    <tripinfo id="f_0.10" depart="360.00" departLane="578571025#2_0" departPos="5.10" departSpeed="0.00" departDelay="0.00" arrival="467.00" arrivalLane="578571025#6_1" arrivalPos="1613.40" arrivalSpeed="19.37" duration="107.00" routeLength="1786.14" waitingTime="0.00" waitingCount="0" stopTime="0.00" timeLoss="15.35" rerouteNo="1" devices="tripinfo_f_0.10 routing_f_0.10" vType="DEFAULT_VEHTYPE" speedFactor="1.18" vaporized=""/>
    <tripinfo id="f_2.12" depart="435.00" departLane="624234289#1_0" departPos="5.10" departSpeed="0.00" departDelay="0.00" arrival="470.00" arrivalLane="578571036#4_1" arrivalPos="74.69" arrivalSpeed="18.12" duration="35.00" routeLength="165.34" waitingTime="16.00" waitingCount="1" stopTime="0.00" timeLoss="24.19" rerouteNo="1" devices="tripinfo_f_2.12 routing_f_2.12" vType="DEFAULT_VEHTYPE" speedFactor="1.10" vaporized=""/>
    <tripinfo id="f_0.8" depart="288.00" departLane="578571025#2_0" departPos="5.10" departSpeed="0.00" departDelay="0.00" arrival="479.00" arrivalLane="578571025#6_0" arrivalPos="1613.40" arrivalSpeed="13.56" duration="191.00" routeLength="1786.14" waitingTime="46.00" waitingCount="1" stopTime="0.00" timeLoss="60.56" rerouteNo="1" devices="tripinfo_f_0.8 routing_f_0.8" vType="DEFAULT_VEHTYPE" speedFactor="0.83" vaporized=""/>
    <tripinfo id="f_0.11" depart="396.00" departLane="578571025#2_0" departPos="5.10" departSpeed="0.00" departDelay="0.00" arrival="495.00" arrivalLane="578571025#6_0" arrivalPos="1613.40" arrivalSpeed="18.29" duration="99.00" routeLength="1786.14" waitingTime="0.00" waitingCount="0" stopTime="0.00" timeLoss="7.44" rerouteNo="1" devices="tripinfo_f_0.11 routing_f_0.11" vType="DEFAULT_VEHTYPE" speedFactor="1.17" vaporized=""/>
    <tripinfo id="f_2.13" depart="471.00" departLane="624234289#1_0" departPos="5.10" departSpeed="0.00" departDelay="0.00" arrival="514.00" arrivalLane="578571036#4_1" arrivalPos="74.69" arrivalSpeed="15.42" duration="43.00" routeLength="165.34" waitingTime="21.00" waitingCount="1" stopTime="0.00" timeLoss="31.00" rerouteNo="1" devices="tripinfo_f_2.13 routing_f_2.13" vType="DEFAULT_VEHTYPE" speedFactor="0.96" vaporized=""/>
    <tripinfo id="f_1.12" depart="434.00" departLane="578571036#0_0" departPos="5.10" departSpeed="0.00" departDelay="0.00" arrival="534.00" arrivalLane="691442976#3_0" arrivalPos="18.55" arrivalSpeed="16.19" duration="100.00" routeLength="733.19" waitingTime="49.00" waitingCount="1" stopTime="0.00" timeLoss="60.49" rerouteNo="1" devices="tripinfo_f_1.12 routing_f_1.12" vType="DEFAULT_VEHTYPE" speedFactor="1.18" vaporized=""/>
    <tripinfo id="f_1.13" depart="470.00" departLane="578571036#0_0" departPos="5.10" departSpeed="0.00" departDelay="0.00" arrival="536.00" arrivalLane="691442976#3_0" arrivalPos="18.55" arrivalSpeed="13.06" duration="66.00" routeLength="733.19" waitingTime="9.00" waitingCount="1" stopTime="0.00" timeLoss="21.34" rerouteNo="1" devices="tripinfo_f_1.13 routing_f_1.13" vType="DEFAULT_VEHTYPE" speedFactor="1.03" vaporized=""/>
    <tripinfo id="f_2.14" depart="507.00" departLane="624234289#1_0" departPos="5.10" departSpeed="0.00" departDelay="0.00" arrival="550.00" arrivalLane="578571036#4_1" arrivalPos="74.69" arrivalSpeed="16.68" duration="43.00" routeLength="165.34" waitingTime="23.00" waitingCount="1" stopTime="0.00" timeLoss="32.13" rerouteNo="1" devices="tripinfo_f_2.14 routing_f_2.14" vType="DEFAULT_VEHTYPE" speedFactor="1.04" vaporized=""/>
    <tripinfo id="f_0.12" depart="432.00" departLane="578571025#2_0" departPos="5.10" departSpeed="0.00" departDelay="0.00" arrival="564.00" arrivalLane="578571025#6_0" arrivalPos="1613.40" arrivalSpeed="15.07" duration="132.00" routeLength="1786.14" waitingTime="7.00" waitingCount="1" stopTime="0.00" timeLoss="21.49" rerouteNo="1" devices="tripinfo_f_0.12 routing_f_0.12" vType="DEFAULT_VEHTYPE" speedFactor="0.97" vaporized=""/>
    <tripinfo id="f_1.14" depart="506.00" departLane="578571036#0_0" departPos="5.10" departSpeed="0.00" departDelay="0.00" arrival="565.00" arrivalLane="691442976#3_0" arrivalPos="18.55" arrivalSpeed="13.21" duration="59.00" routeLength="733.19" waitingTime="4.00" waitingCount="1" stopTime="0.00" timeLoss="14.53" rerouteNo="1" devices="tripinfo_f_1.14 routing_f_1.14" vType="DEFAULT_VEHTYPE" speedFactor="1.04" vaporized=""/>
    <tripinfo id="f_2.15" depart="543.00" departLane="624234289#1_0" departPos="5.10" departSpeed="0.00" departDelay="0.00" arrival="591.00" arrivalLane="578571036#4_1" arrivalPos="74.69" arrivalSpeed="14.46" duration="48.00" routeLength="165.34" waitingTime="27.00" waitingCount="1" stopTime="0.00" timeLoss="34.43" rerouteNo="1" devices="tripinfo_f_2.15 routing_f_2.15" vType="DEFAULT_VEHTYPE" speedFactor="0.90" vaporized=""/>
    <tripinfo id="f_0.13" depart="468.00" departLane="578571025#2_0" departPos="5.10" departSpeed="0.00" departDelay="0.00" arrival="597.00" arrivalLane="578571025#6_0" arrivalPos="1613.40" arrivalSpeed="14.48" duration="129.00" routeLength="1786.14" waitingTime="0.00" waitingCount="0" stopTime="0.00" timeLoss="9.53" rerouteNo="1" devices="tripinfo_f_0.13 routing_f_0.13" vType="DEFAULT_VEHTYPE" speedFactor="0.90" vaporized=""/>
    <tripinfo id="f_2.16" depart="579.00" departLane="624234289#1_0" departPos="5.10" departSpeed="0.00" departDelay="0.00" arrival="597.00" arrivalLane="578571036#4_1" arrivalPos="74.69" arrivalSpeed="13.07" duration="18.00" routeLength="165.34" waitingTime="0.00" waitingCount="0" stopTime="0.00" timeLoss="4.36" rerouteNo="1" devices="tripinfo_f_2.16 routing_f_2.16" vType="DEFAULT_VEHTYPE" speedFactor="0.85" vaporized=""/>
    <tripinfo id="f_1.15" depart="542.00" departLane="578571036#0_0" departPos="5.10" departSpeed="0.00" departDelay="0.00" arrival="601.00" arrivalLane="691442976#3_0" arrivalPos="18.55" arrivalSpeed="13.67" duration="59.00" routeLength="733.19" waitingTime="2.00" waitingCount="1" stopTime="0.00" timeLoss="12.81" rerouteNo="1" devices="tripinfo_f_1.15 routing_f_1.15" vType="DEFAULT_VEHTYPE" speedFactor="1.00" vaporized=""/>
    <tripinfo id="f_0.14" depart="504.00" departLane="578571025#2_0" departPos="5.10" departSpeed="0.00" departDelay="0.00" arrival="610.00" arrivalLane="578571025#6_0" arrivalPos="1613.40" arrivalSpeed="17.94" duration="106.00" routeLength="1786.14" waitingTime="0.00" waitingCount="0" stopTime="0.00" timeLoss="7.81" rerouteNo="1" devices="tripinfo_f_0.14 routing_f_0.14" vType="DEFAULT_VEHTYPE" speedFactor="1.09" vaporized=""/>
    <tripinfo id="f_1.16" depart="578.00" departLane="578571036#0_0" departPos="5.10" departSpeed="0.00" departDelay="0.00" arrival="639.00" arrivalLane="691442976#3_0" arrivalPos="18.55" arrivalSpeed="11.45" duration="61.00" routeLength="733.19" waitingTime="0.00" waitingCount="0" stopTime="0.00" timeLoss="7.10" rerouteNo="1" devices="tripinfo_f_1.16 routing_f_1.16" vType="DEFAULT_VEHTYPE" speedFactor="0.85" vaporized=""/>
    <tripinfo id="f_0.15" depart="540.00" departLane="578571025#2_0" departPos="5.10" departSpeed="0.00" departDelay="0.00" arrival="663.00" arrivalLane="578571025#6_0" arrivalPos="1613.40" arrivalSpeed="17.71" duration="123.00" routeLength="1786.14" waitingTime="9.00" waitingCount="1" stopTime="0.00" timeLoss="24.18" rerouteNo="1" devices="tripinfo_f_0.15 routing_f_0.15" vType="DEFAULT_VEHTYPE" speedFactor="1.09" vaporized=""/>
    <tripinfo id="f_1.17" depart="614.00" departLane="578571036#0_0" departPos="5.10" departSpeed="0.00" departDelay="0.00" arrival="671.00" arrivalLane="691442976#3_0" arrivalPos="18.55" arrivalSpeed="13.86" duration="57.00" routeLength="733.19" waitingTime="0.00" waitingCount="0" stopTime="0.00" timeLoss="12.07" rerouteNo="1" devices="tripinfo_f_1.17 routing_f_1.17" vType="DEFAULT_VEHTYPE" speedFactor="1.02" vaporized=""/>
    <tripinfo id="f_1.18" depart="650.00" departLane="578571036#0_0" departPos="5.10" departSpeed="0.00" departDelay="0.00" arrival="703.00" arrivalLane="691442976#3_0" arrivalPos="18.55" arrivalSpeed="13.52" duration="53.00" routeLength="733.19" waitingTime="0.00" waitingCount="0" stopTime="0.00" timeLoss="6.87" rerouteNo="1" devices="tripinfo_f_1.18 routing_f_1.18" vType="DEFAULT_VEHTYPE" speedFactor="1.00" vaporized=""/>
    <tripinfo id="f_2.17" depart="615.00" departLane="624234289#1_0" departPos="5.10" departSpeed="0.00" departDelay="0.00" arrival="710.00" arrivalLane="578571036#4_1" arrivalPos="74.69" arrivalSpeed="17.38" duration="95.00" routeLength="165.34" waitingTime="74.00" waitingCount="1" stopTime="0.00" timeLoss="84.19" rerouteNo="1" devices="tripinfo_f_2.17 routing_f_2.17" vType="DEFAULT_VEHTYPE" speedFactor="1.10" vaporized=""/>
    <tripinfo id="f_2.18" depart="651.00" departLane="624234289#1_0" departPos="5.10" departSpeed="0.00" departDelay="0.00" arrival="713.00" arrivalLane="578571036#4_1" arrivalPos="74.69" arrivalSpeed="14.31" duration="62.00" routeLength="165.34" waitingTime="39.00" waitingCount="1" stopTime="0.00" timeLoss="48.59" rerouteNo="1" devices="tripinfo_f_2.18 routing_f_2.18" vType="DEFAULT_VEHTYPE" speedFactor="0.90" vaporized=""/>
    <tripinfo id="f_2.19" depart="687.00" departLane="624234289#1_0" departPos="5.10" departSpeed="0.00" departDelay="0.00" arrival="714.00" arrivalLane="578571036#4_1" arrivalPos="74.69" arrivalSpeed="15.83" duration="27.00" routeLength="165.34" waitingTime="6.00" waitingCount="1" stopTime="0.00" timeLoss="15.03" rerouteNo="1" devices="tripinfo_f_2.19 routing_f_2.19" vType="DEFAULT_VEHTYPE" speedFactor="0.97" vaporized=""/>
    <tripinfo id="f_0.16" depart="576.00" departLane="578571025#2_0" departPos="5.10" departSpeed="0.00" departDelay="0.00" arrival="721.00" arrivalLane="578571025#6_0" arrivalPos="1613.40" arrivalSpeed="13.79" duration="145.00" routeLength="1786.14" waitingTime="8.00" waitingCount="1" stopTime="0.00" timeLoss="22.64" rerouteNo="1" devices="tripinfo_f_0.16 routing_f_0.16" vType="DEFAULT_VEHTYPE" speedFactor="0.88" vaporized=""/>
    <tripinfo id="f_0.17" depart="612.00" departLane="578571025#2_0" departPos="5.10" departSpeed="0.00" departDelay="0.00" arrival="732.00" arrivalLane="578571025#6_0" arrivalPos="1613.40" arrivalSpeed="19.35" duration="120.00" routeLength="1786.14" waitingTime="13.00" waitingCount="1" stopTime="0.00" timeLoss="28.31" rerouteNo="1" devices="tripinfo_f_0.17 routing_f_0.17" vType="DEFAULT_VEHTYPE" speedFactor="1.17" vaporized=""/>
    <tripinfo id="f_2.20" depart="723.00" departLane="624234289#1_0" departPos="5.10" departSpeed="0.00" departDelay="0.00" arrival="745.00" arrivalLane="578571036#4_1" arrivalPos="74.69" arrivalSpeed="16.56" duration="22.00" routeLength="165.34" waitingTime="2.00" waitingCount="1" stopTime="0.00" timeLoss="9.95" rerouteNo="1" devices="tripinfo_f_2.20 routing_f_2.20" vType="DEFAULT_VEHTYPE" speedFactor="1.02" vaporized=""/>
    <tripinfo id="f_2.21" depart="759.00" departLane="624234289#1_0" departPos="5.10" departSpeed="0.00" departDelay="0.00" arrival="776.00" arrivalLane="578571036#4_1" arrivalPos="74.69" arrivalSpeed="13.69" duration="17.00" routeLength="165.34" waitingTime="0.00" waitingCount="0" stopTime="0.00" timeLoss="3.63" rerouteNo="1" devices="tripinfo_f_2.21 routing_f_2.21" vType="DEFAULT_VEHTYPE" speedFactor="0.88" vaporized=""/>
    <tripinfo id="f_0.19" depart="684.00" departLane="578571025#2_0" departPos="5.10" departSpeed="0.00" departDelay="0.00" arrival="808.00" arrivalLane="578571025#6_0" arrivalPos="1613.40" arrivalSpeed="18.89" duration="124.00" routeLength="1786.14" waitingTime="16.00" waitingCount="1" stopTime="0.00" timeLoss="30.16" rerouteNo="1" devices="tripinfo_f_0.19 routing_f_0.19" vType="DEFAULT_VEHTYPE" speedFactor="1.14" vaporized=""/>
    <tripinfo id="f_0.18" depart="648.00" departLane="578571025#2_0" departPos="5.10" departSpeed="0.00" departDelay="0.00" arrival="821.00" arrivalLane="578571025#6_0" arrivalPos="1613.40" arrivalSpeed="16.69" duration="173.00" routeLength="1786.14" waitingTime="52.00" waitingCount="1" stopTime="0.00" timeLoss="65.84" rerouteNo="1" devices="tripinfo_f_0.18 routing_f_0.18" vType="DEFAULT_VEHTYPE" speedFactor="1.00" vaporized=""/>
    <tripinfo id="f_1.19" depart="686.00" departLane="578571036#0_0" departPos="5.10" departSpeed="0.00" departDelay="0.00" arrival="821.00" arrivalLane="691442976#3_0" arrivalPos="18.55" arrivalSpeed="14.14" duration="135.00" routeLength="733.19" waitingTime="77.00" waitingCount="1" stopTime="0.00" timeLoss="89.85" rerouteNo="1" devices="tripinfo_f_1.19 routing_f_1.19" vType="DEFAULT_VEHTYPE" speedFactor="1.02" vaporized=""/>
    <tripinfo id="f_1.20" depart="722.00" departLane="578571036#0_0" departPos="5.10" departSpeed="0.00" departDelay="0.00" arrival="823.00" arrivalLane="691442976#3_0" arrivalPos="18.55" arrivalSpeed="14.58" duration="101.00" routeLength="733.19" waitingTime="48.00" waitingCount="1" stopTime="0.00" timeLoss="59.51" rerouteNo="1" devices="tripinfo_f_1.20 routing_f_1.20" vType="DEFAULT_VEHTYPE" speedFactor="1.12" vaporized=""/>
    <tripinfo id="f_1.21" depart="758.00" departLane="578571036#0_0" departPos="5.10" departSpeed="0.00" departDelay="0.00" arrival="827.00" arrivalLane="691442976#3_0" arrivalPos="18.55" arrivalSpeed="12.94" duration="69.00" routeLength="733.19" waitingTime="7.00" waitingCount="1" stopTime="0.00" timeLoss="19.54" rerouteNo="1" devices="tripinfo_f_1.21 routing_f_1.21" vType="DEFAULT_VEHTYPE" speedFactor="0.94" vaporized=""/>
    <tripinfo id="f_2.22" depart="795.00" departLane="624234289#1_0" departPos="5.10" departSpeed="0.00" departDelay="0.00" arrival="835.00" arrivalLane="578571036#4_1" arrivalPos="74.69" arrivalSpeed="16.90" duration="40.00" routeLength="165.34" waitingTime="18.00" waitingCount="1" stopTime="0.00" timeLoss="28.21" rerouteNo="1" devices="tripinfo_f_2.22 routing_f_2.22" vType="DEFAULT_VEHTYPE" speedFactor="1.04" vaporized=""/>
    <tripinfo id="f_2.23" depart="831.00" departLane="624234289#1_0" departPos="5.10" departSpeed="0.00" departDelay="0.00" arrival="848.00" arrivalLane="578571036#4_1" arrivalPos="74.69" arrivalSpeed="14.96" duration="17.00" routeLength="165.34" waitingTime="0.00" waitingCount="0" stopTime="0.00" timeLoss="4.61" rerouteNo="1" devices="tripinfo_f_2.23 routing_f_2.23" vType="DEFAULT_VEHTYPE" speedFactor="0.97" vaporized=""/>